14
12-DC_BENZENE.LOG	Energy: -261429.4629643
N          0.00000       -2.06719       -2.33171
C          0.00000       -1.44518       -1.33642
N          0.00000        2.06719       -2.33171
C          0.00000        1.44518       -1.33642
C          0.00000        1.40148        1.11537
C          0.00000        0.71023       -0.10919
C          0.00000       -0.71023       -0.10919
C          0.00000       -1.40148        1.11537
C          0.00000       -0.69998        2.32260
C          0.00000        0.69998        2.32260
H          0.00000        2.48512        1.10799
H          0.00000       -2.48512        1.10799
H          0.00000       -1.24506        3.25987
H          0.00000        1.24506        3.25987
