7
DC_METHANE.LOG	Energy: -141129.8419599
N          0.00000        2.21549       -0.59648
C          0.00000        1.22648        0.02894
N          0.00000       -2.21549       -0.59648
C          0.00000       -1.22648        0.02894
C          0.00000        0.00000        0.83616
H         -0.88021        0.00000        1.49323
H          0.88021        0.00000        1.49323
