12
DCCBUTENE.LOG	Energy: -213579.2548837
N          0.00000        2.50816       -1.61575
C          0.00000        1.66454       -0.79697
N          0.00000       -2.50816       -1.61575
C          0.00000       -1.66454       -0.79697
C          0.00000        0.68214        0.21525
C          0.00000       -0.68214        0.21525
C          0.00000       -0.78926        1.74246
C          0.00000        0.78926        1.74246
H          0.89191       -1.25329        2.17292
H          0.89191        1.25329        2.17292
H         -0.89191       -1.25329        2.17292
H         -0.89191        1.25329        2.17292
