14
TC-PYRAZINE.LOG	Energy: -397229.3205694
N          0.00000        3.38032        2.06372
C          0.00000        2.37443        1.46166
N          0.00000       -3.38032        2.06372
C          0.00000       -2.37443        1.46166
C          0.00000        1.15920        0.71011
C          0.00000        1.15920       -0.71011
N          0.00000        0.00000       -1.39957
C          0.00000       -1.15920       -0.71011
C          0.00000       -1.15920        0.71011
N          0.00000        0.00000        1.39957
C          0.00000        2.37443       -1.46166
N          0.00000        3.38032       -2.06372
C          0.00000       -2.37443       -1.46166
N          0.00000       -3.38032       -2.06372
