12
TCCBD.LOG	Energy: -328488.6361212
N          0.00000        2.56616        2.54080
C          0.00000        1.69284        1.75180
N          0.00000        2.56616       -2.54080
C          0.00000        1.69284       -1.75180
C          0.00000        0.68138        0.78871
C          0.00000        0.68138       -0.78871
C          0.00000       -0.68138       -0.78871
C          0.00000       -0.68138        0.78871
C          0.00000       -1.69284       -1.75180
N          0.00000       -2.56616       -2.54080
C          0.00000       -1.69284        1.75180
N          0.00000       -2.56616        2.54080
