20
TCNQ.LOG	Energy: -425691.6630207
N          0.00000       -2.22368       -4.17317
C          0.00000       -1.21375       -3.57140
N          0.00000        2.22368       -4.17317
C          0.00000        1.21375       -3.57140
C          0.00000        0.00000        1.43130
C          0.00000        1.23992        0.67992
C          0.00000        1.23992       -0.67992
C          0.00000        0.00000       -1.43130
C          0.00000       -1.23992       -0.67992
C          0.00000       -1.23992        0.67992
H          0.00000        2.17772        1.22355
H          0.00000        2.17772       -1.22355
H          0.00000       -2.17772       -1.22355
H          0.00000       -2.17772        1.22355
C          0.00000        0.00000       -2.82475
C          0.00000        0.00000        2.82475
C          0.00000        1.21375        3.57140
C          0.00000       -1.21375        3.57140
N          0.00000        2.22368        4.17317
N          0.00000       -2.22368        4.17317
